                  Welcome to Q-Chem
     A Quantum Leap Into The Future Of Chemistry


 Q-Chem 4.3, Q-Chem, Inc., Pleasanton, CA (2015)

 Y. Shao,  Z. Gan,  E. Epifanovsky,  A. T. B. Gilbert,  M. Wormit,  
 J. Kussmann,  A. W. Lange,  A. Behn,  J. Deng,  X. Feng,  D. Ghosh,  
 M. Goldey,  P. R. Horn,  L. D. Jacobson,  I. Kaliman,  R. Z. Khaliullin,  
 T. Kus,  A. Landau,  J. Liu,  E. I. Proynov,  Y. M. Rhee,  R. M. Richard,  
 M. A. Rohrdanz,  R. P. Steele,  E. J. Sundstrom,  H. L. Woodcock III,  
 P. M. Zimmerman,  D. Zuev,  B. Albrecht,  E. Alguire,  B. Austin,  
 S. A. Baeppler,  G. J. O. Beran,  Y. A. Bernard,  E. Berquist,  
 K. Brandhorst,  K. B. Bravaya,  S. T. Brown,  D. Casanova,  C.-M. Chang,  
 Y. Chen,  S. H. Chien,  K. D. Closser,  D. L. Crittenden,  M. Diedenhofen,  
 R. A. DiStasio Jr.,  H. Do,  A. D. Dutoi,  R. G. Edgar,  P.-T. Fang,  
 S. Fatehi,  Q. Feng,  L. Fusti-Molnar,  A. Ghysels,  
 A. Golubeva-Zadorozhnaya,  J. Gomes,  A. Gunina,  M. W. D. Hanson-Heine,  
 P. H. P. Harbach,  A. W. Hauser,  E. G. Hohenstein,  Z. C. Holden,  K. Hui,  
 T.-C. Jagau,  H. Ji,  B. Kaduk,  K. Khistyaev,  Jaehoon Kim,  Jihan Kim,  
 R. A. King,  P. Klunzinger,  D. Kosenkov,  T. Kowalczyk,  C. M. Krauter,  
 K. U. Lao,  A. Laurent,  K. V. Lawler,  S. Lehtola,  S. V. Levchenko,  
 C. Y. Lin,  Y.-S. Lin,  F. Liu,  E. Livshits,  R. C. Lochan,  A. Luenser,  
 P. Manohar,  S. F. Manzer,  S.-P. Mao,  N. Mardirossian,  A. V. Marenich,  
 L. A. Martinez-Martinez,  S. A. Maurer,  N. J. Mayhall,  K. Nanda,  
 C. M. Oana,  R. Olivares-Amaya,  D. P. O'Neill,  J. A. Parkhill,  
 T. M. Perrine,  R. Peverati,  P. A. Pieniazek,  F. Plasser,  A. Prociuk,  
 D. R. Rehn,  E. Rosta,  N. J. Russ,  N. Sergueev,  S. M. Sharada,  
 S. Sharma,  D. W. Small,  A. Sodt,  T. Stauch,  T. Stein,  D. Stuck,  
 Y.-C. Su,  A. J. W. Thom,  T. Tsuchimochi,  L. Vogt,  O. Vydrov,  T. Wang,  
 M. A. Watson,  J. Wenzel,  A. White,  C. F. Williams,  V. Vanovschi,  
 S. Yeganeh,  S. R. Yost,  Z.-Q. You,  I. Y. Zhang,  X. Zhang,  Y. Zhao,  
 B. R. Brooks,  G. K. L. Chan,  D. M. Chipman,  C. J. Cramer,  
 W. A. Goddard III,  M. S. Gordon,  W. J. Hehre,  A. Klamt,  
 H. F. Schaefer III,  M. W. Schmidt,  C. D. Sherrill,  D. G. Truhlar,  
 A. Warshel,  X. Xu,  A. Aspuru-Guzik,  R. Baer,  A. T. Bell,  N. A. Besley,  
 J.-D. Chai,  A. Dreuw,  B. D. Dunietz,  T. R. Furlani,  S. R. Gwaltney,  
 C.-P. Hsu,  Y. Jung,  J. Kong,  D. S. Lambrecht,  W. Liang,  C. Ochsenfeld,  
 V. A. Rassolov,  L. V. Slipchenko,  J. E. Subotnik,  T. Van Voorhis,  
 J. M. Herbert,  A. I. Krylov,  P. M. W. Gill,  M. Head-Gordon

 Contributors to earlier versions of Q-Chem not listed above: 
 R. D. Adamson,  J. Baker,  E. F. C. Byrd,  A. K. Chakraborty,  C.-L. Cheng,  
 H. Dachsel,  R. J. Doerksen,  G. Hawkins,  A. Heyden,  S. Hirata,  
 G. Kedziora,  F. J. Keil,  C. Kelley,  P. P. Korambath,  W. Kurlancheek,  
 A. M. Lee,  M. S. Lee,  D. Liotard,  I. Lotan,  P. E. Maslen,  N. Nair,  
 D. Neuhauser,  R. Olson,  B. Peters,  J. Ritchie,  N. E. Schultz,  
 N. Shenvi,  A. C. Simmonett,  K. S. Thanthiriwatte,  Q. Wu,  W. Zhang

 Please cite Q-Chem as follows:
 Y. Shao et al., Mol. Phys. 113, 184-215 (2014)
 DOI: 10.1080/00268976.2014.952696

 Q-Chem 4.3.0 for Intel X86 EM64T Linux

 Parts of Q-Chem use Armadillo 4.550.3 (Singapore Sling Deluxe).
 http://arma.sourceforge.net/

 Q-Chem begins on Wed Aug 12 12:13:15 2015  

Host: n268
0

     Scratch files written to /scratch/3045359.clusman0a.frank.sam.pitt.edu/qchem84984//
 Mar1615 |home|dlambrecht|erb74|opt|apps|qchem|trunk_RNUM -1
Processing $rem in /home/dlambrecht/erb74/.qchemrc.
         symmetry = false
       sym_ignore = true
      cc_symmetry = false
  scf_convergence = 8
           thresh = 12
        varthresh = 0
           incdft = 0
          xc_grid = 000100000302 ! (100,302)
 integrals_buffer = 1000
       mem_static = 2000
        cc_memory = 4000
        mem_total = 8000
       ao2mo_disk = 4000
    n_frozen_core = fc
    molden_format = true
   scf_print_frgm = true
           chelpg = true
   scf_max_cycles = 1000

Checking the input file for inconsistencies...	...done.

--------------------------------------------------------------
User input:
--------------------------------------------------------------
$molecule
0 1
-- F6P (92) :: C8H15N2 (364) :: 
0 1
F      3.4802800000    2.2838000000   -1.7501000000
F      3.0137500000   -0.6444988000   -2.8564000000
F      4.7858800000    0.6827011000   -2.9553000000
F      1.8269400000    0.9263000000   -1.8172000000
F      2.7712200000    1.3688000000   -3.8109000000
F      3.7083800000    0.2999001000   -0.9099998000
P      3.2871800000    0.8346004000   -2.3382000000
N      2.0503500000   -0.9216995000    3.9774000000
C      2.0794700000   -2.1273990000    4.6735990000
N      1.1441000000   -1.9804990000    5.6174960000
C      0.6420994000   -0.6618004000    5.5901990000
C      1.1472700000    0.0164012910    4.4965000000
H      2.6912200000   -2.9867990000    4.4468000000
H      0.0673999790   -0.3323994000    6.4470980000
H      1.0002990000    0.9798012000    4.0240990000
C      2.7387100000   -0.7742996000    2.7254010000
H      2.6675100000   -1.7027990000    2.1532000000
H      3.7996300000   -0.5114002000    2.7231010000
H      2.2103200000    0.0531005860    2.2448010000
C      0.9215097000   -2.8529990000    6.7017970000
H      0.2820997000   -2.4365010000    7.4842990000
H      1.8694900000   -3.2635990000    7.0585980000
C      0.3255997000   -4.1637990000    6.1403010000
H     -0.6408005000   -3.9976010000    5.6596980000
H      1.0438500000   -4.4697990000    5.3767970000
C      0.3418999000   -5.3160000000    7.1679990000
H      1.3799800000   -5.4450000000    7.4812970000
H     -0.1515999000   -6.1763000000    6.7110980000
C     -0.4596004000   -5.1635990000    8.3972970000
H     -1.5202000000   -5.0874000000    8.1488000000
H     -0.2294006000   -5.9622990000    9.1054990000
H     -0.1578007000   -4.3039000000    8.9990960000
-- CO2 (512)
0 1
C      0.0000000000    0.0000000000    0.0000000000
O     -0.1240005000   -0.6795998000   -0.9318008000
O      0.1239996000    0.6795998000    0.9319000000
$end

$external_charges
 0.027100 -4.804699 2.931801 -0.245000
 -1.861000 -2.627399 1.427099 -0.246000
 -1.791201 -4.965599 1.664301 -0.246000
 0.191700 -2.496099 2.357500 -0.246000
 -0.000200 -3.955200 0.651501 -0.246000
 -1.613900 -3.362700 3.421900 -0.246000
 -0.784801 -3.710300 2.038500 0.635000
 0.243199 3.133801 4.989498 -0.245000
 1.120120 5.381400 6.989998 -0.246000
 2.032240 3.434100 6.108398 -0.246000
 -0.778200 4.908601 5.929897 -0.246000
 0.139800 3.382401 7.285099 -0.246000
 1.223030 5.013600 4.761400 -0.246000
 0.671900 4.197201 6.027798 0.635000
 4.009020 2.647000 2.462400 0.177000
 4.934960 2.838700 1.487101 -0.138000
 6.136950 2.387401 1.995001 0.261000
 5.840380 1.808701 3.242399 -0.230000
 4.542250 2.070900 3.605000 -0.126000
 4.759890 3.286901 0.521299 0.195000
 6.658780 1.414801 3.832300 0.225000
 3.947710 1.954201 4.502600 0.189000
 2.618560 2.900801 2.269701 -0.295000
 2.152470 2.068501 1.736300 0.146000
 2.500529 3.796901 1.655100 0.146000
 2.082680 3.078600 3.205601 0.146000
 7.302570 2.164500 1.167400 -0.288000
 7.005670 2.218400 0.116900 0.123000
 7.792140 1.211500 1.383699 0.123000
 8.352409 3.271200 1.439400 0.037000
 8.962110 3.372101 0.539101 0.020000
 7.837359 4.232700 1.387800 0.020000
 9.172970 3.185301 2.774099 0.120000
 8.498270 3.245601 3.630600 0.011000
 9.942838 3.957601 2.832300 0.011000
 9.879436 1.809100 2.882601 -0.267000
 10.623940 1.695801 2.091801 0.078000
 10.511470 1.913501 3.767000 0.078000
 9.194980 0.996700 3.135599 0.078000
 -6.540400 -0.131700 3.595301 0.177000
 -5.636200 0.328901 4.436501 -0.138000
 -4.409201 -0.025499 3.959499 0.261000
 -4.670300 -0.862999 2.879000 -0.230000
 -6.002399 -0.869600 2.610901 -0.126000
 -5.837400 0.678101 5.437496 0.195000
 -3.895101 -1.304100 2.264700 0.225000
 -6.570700 -1.315800 1.804199 0.189000
 -7.940401 0.097200 3.737200 -0.295000
 -8.374701 -0.317600 2.823999 0.146000
 -8.072100 1.181499 3.779100 0.146000
 -8.285601 -0.322701 4.685400 0.146000
 -3.192300 0.199200 4.612101 -0.288000
 -2.789001 -0.764299 4.934101 0.123000
 -3.388801 0.827501 5.484600 0.123000
 -2.359800 1.007101 3.686899 0.037000
 -1.304000 1.034100 3.964500 0.020000
 -2.434000 0.585300 2.682400 0.020000
 -2.899800 2.432501 3.649099 0.120000
 -2.907400 2.852700 4.657000 0.011000
 -3.911700 2.480901 3.241301 0.011000
 -2.118501 3.357100 2.672501 -0.267000
 -1.688200 2.809800 1.831200 0.078000
 -2.795000 4.106800 2.257000 0.078000
 -1.364300 4.013500 3.111500 0.078000
$end

$rem
 jobtype = eda
 method = b3lyp
 basis = 6-31g**
 scf_convergence = 8
 thresh = 11
 xc_grid = 000100000302
 frgm_method = stoll
 frgm_lpcorr = rs_exact_scf
 eda_covp = true
 eda_print_covp = true
 chelpg = true
 molden_format = false
 sym_ignore = true
 symmetry = false
$end

--------------------------------------------------------------
 ----------------------------------------------------------------
             Standard Nuclear Orientation (Angstroms)
    I     Atom           X                Y                Z
 ----------------------------------------------------------------
    1      F       3.4802800000     2.2838000000    -1.7501000000
    2      F       3.0137500000    -0.6444988000    -2.8564000000
    3      F       4.7858800000     0.6827011000    -2.9553000000
    4      F       1.8269400000     0.9263000000    -1.8172000000
    5      F       2.7712200000     1.3688000000    -3.8109000000
    6      F       3.7083800000     0.2999001000    -0.9099998000
    7      P       3.2871800000     0.8346004000    -2.3382000000
    8      N       2.0503500000    -0.9216995000     3.9774000000
    9      C       2.0794700000    -2.1273990000     4.6735990000
   10      N       1.1441000000    -1.9804990000     5.6174960000
   11      C       0.6420994000    -0.6618004000     5.5901990000
   12      C       1.1472700000     0.0164012910     4.4965000000
   13      H       2.6912200000    -2.9867990000     4.4468000000
   14      H       0.0673999790    -0.3323994000     6.4470980000
   15      H       1.0002990000     0.9798012000     4.0240990000
   16      C       2.7387100000    -0.7742996000     2.7254010000
   17      H       2.6675100000    -1.7027990000     2.1532000000
   18      H       3.7996300000    -0.5114002000     2.7231010000
   19      H       2.2103200000     0.0531005860     2.2448010000
   20      C       0.9215097000    -2.8529990000     6.7017970000
   21      H       0.2820997000    -2.4365010000     7.4842990000
   22      H       1.8694900000    -3.2635990000     7.0585980000
   23      C       0.3255997000    -4.1637990000     6.1403010000
   24      H      -0.6408005000    -3.9976010000     5.6596980000
   25      H       1.0438500000    -4.4697990000     5.3767970000
   26      C       0.3418999000    -5.3160000000     7.1679990000
   27      H       1.3799800000    -5.4450000000     7.4812970000
   28      H      -0.1515999000    -6.1763000000     6.7110980000
   29      C      -0.4596004000    -5.1635990000     8.3972970000
   30      H      -1.5202000000    -5.0874000000     8.1488000000
   31      H      -0.2294006000    -5.9622990000     9.1054990000
   32      H      -0.1578007000    -4.3039000000     8.9990960000
   33      C       0.0000000000     0.0000000000     0.0000000000
   34      O      -0.1240005000    -0.6795998000    -0.9318008000
   35      O       0.1239996000     0.6795998000     0.9319000000
 ----------------------------------------------------------------
 Nuclear Repulsion Energy =  1810.3106563715 hartrees
 There are       84 alpha and       84 beta electrons
 Requested basis set is 6-31G(d,p)
 There are 126 shells and 379 basis functions

Total QAlloc Memory Limit   8000 MB
Mega-Array Size      1956 MB
MEM_STATIC part      2000 MB
 A cutoff of  1.0D-11 yielded   3881 shell pairs
 There are     34923 function pairs
 
 -------------------------------------------------------
 OpenMP Integral Computing Module                       
 Release: version 1.0, May 2013, Q-Chem Inc. Pittsburgh 
 -------------------------------------------------------
 Integral Job Info:
 Integral job number is                      11
 Integral operator is                         1
 short-range coefficients               -999999
 long-range coefficients                -999999
 Omega coefficients                           0
 if combine SR and LR in K              -999999
 Integral screening is                        0
 Integral computing path is                   2
 max size of driver memory is            800000
 size of driver memory is                593474
 size of scratch memory is             15166112
 max col of scratch BK array               1296
 max len of scratch array in speh3          155
 max len of scratch index in speh4           18
 max int batch size is                      520
 min int batch size is                       52
 fixed nKL is                                52
 max L of basis functions is                  2
 order of int derivative is                   0
 number of shells is                        126
 number of basis is                         379
 number of cartesian basis is               379
 number of contracted shell pairs          3881
 number of primitive shell pairs          12389
 maxK2 (contraction) of shell pair           36
 max number of K2 of shell pair               1
 max number of CS2 of shell pair            326
 max number of PS2 of shell pair           1788
 mem total for path MDJ                   76120
 -------------------------------------------------------
 Smallest overlap matrix eigenvalue = 1.48E-03

  Scale SEOQF with 1.000000e-01/1.000000e-02/1.000000e-02

 Standard Electronic Orientation quadrupole field applied
 Nucleus-field energy     =     0.0000000072 hartrees
 Adding 64 external point charges to one-electron Hamiltonian
 Nucleus-charge energy    =    -2.1532947877 hartrees
 Charge-charge energy     =    -0.6446820275 hartrees
 Guess MOs from converged MOs on fragments

QCSCRATCH   is /scratch/3045359.clusman0a.frank.sam.pitt.edu
QCFILEPREF  is /scratch/3045359.clusman0a.frank.sam.pitt.edu/qchem84984/

-----------------------------------------------------------------
 SCF on fragment 1 out of 2
-----------------------------------------------------------------

/home/dlambrecht/software/qchem43.trunk.20150505.omp.release/bin/xr.csh  /scratch/3045359.clusman0a.frank.sam.pitt.edu/qchem84984/Frg1.input  stdout  Frg1
/home/dlambrecht/software/qchem43.trunk.20150505.omp.release/bin/xr.csh /scratch/3045359.clusman0a.frank.sam.pitt.edu/qchem84984/Frg1.input stdout Frg1
QCSCRATCH is /scratch/3045359.clusman0a.frank.sam.pitt.edu/qchem84984/Frg1
QCFILEPREF is /scratch/3045359.clusman0a.frank.sam.pitt.edu/qchem84984/Frg1/
-- Serial fragment SCF job
/home/dlambrecht/software/qchem43.trunk.20150505.omp.release/exe/qcprog.exe /scratch/3045359.clusman0a.frank.sam.pitt.edu/qchem84984/Frg1.input /scratch/3045359.clusman0a.frank.sam.pitt.edu/qchem84984/Frg1/
                  Welcome to Q-Chem
     A Quantum Leap Into The Future Of Chemistry


 Q-Chem 4.3, Q-Chem, Inc., Pleasanton, CA (2015)

 Y. Shao,  Z. Gan,  E. Epifanovsky,  A. T. B. Gilbert,  M. Wormit,  
 J. Kussmann,  A. W. Lange,  A. Behn,  J. Deng,  X. Feng,  D. Ghosh,  
 M. Goldey,  P. R. Horn,  L. D. Jacobson,  I. Kaliman,  R. Z. Khaliullin,  
 T. Kus,  A. Landau,  J. Liu,  E. I. Proynov,  Y. M. Rhee,  R. M. Richard,  
 M. A. Rohrdanz,  R. P. Steele,  E. J. Sundstrom,  H. L. Woodcock III,  
 P. M. Zimmerman,  D. Zuev,  B. Albrecht,  E. Alguire,  B. Austin,  
 S. A. Baeppler,  G. J. O. Beran,  Y. A. Bernard,  E. Berquist,  
 K. Brandhorst,  K. B. Bravaya,  S. T. Brown,  D. Casanova,  C.-M. Chang,  
 Y. Chen,  S. H. Chien,  K. D. Closser,  D. L. Crittenden,  M. Diedenhofen,  
 R. A. DiStasio Jr.,  H. Do,  A. D. Dutoi,  R. G. Edgar,  P.-T. Fang,  
 S. Fatehi,  Q. Feng,  L. Fusti-Molnar,  A. Ghysels,  
 A. Golubeva-Zadorozhnaya,  J. Gomes,  A. Gunina,  M. W. D. Hanson-Heine,  
 P. H. P. Harbach,  A. W. Hauser,  E. G. Hohenstein,  Z. C. Holden,  K. Hui,  
 T.-C. Jagau,  H. Ji,  B. Kaduk,  K. Khistyaev,  Jaehoon Kim,  Jihan Kim,  
 R. A. King,  P. Klunzinger,  D. Kosenkov,  T. Kowalczyk,  C. M. Krauter,  
 K. U. Lao,  A. Laurent,  K. V. Lawler,  S. Lehtola,  S. V. Levchenko,  
 C. Y. Lin,  Y.-S. Lin,  F. Liu,  E. Livshits,  R. C. Lochan,  A. Luenser,  
 P. Manohar,  S. F. Manzer,  S.-P. Mao,  N. Mardirossian,  A. V. Marenich,  
 L. A. Martinez-Martinez,  S. A. Maurer,  N. J. Mayhall,  K. Nanda,  
 C. M. Oana,  R. Olivares-Amaya,  D. P. O'Neill,  J. A. Parkhill,  
 T. M. Perrine,  R. Peverati,  P. A. Pieniazek,  F. Plasser,  A. Prociuk,  
 D. R. Rehn,  E. Rosta,  N. J. Russ,  N. Sergueev,  S. M. Sharada,  
 S. Sharma,  D. W. Small,  A. Sodt,  T. Stauch,  T. Stein,  D. Stuck,  
 Y.-C. Su,  A. J. W. Thom,  T. Tsuchimochi,  L. Vogt,  O. Vydrov,  T. Wang,  
 M. A. Watson,  J. Wenzel,  A. White,  C. F. Williams,  V. Vanovschi,  
 S. Yeganeh,  S. R. Yost,  Z.-Q. You,  I. Y. Zhang,  X. Zhang,  Y. Zhao,  
 B. R. Brooks,  G. K. L. Chan,  D. M. Chipman,  C. J. Cramer,  
 W. A. Goddard III,  M. S. Gordon,  W. J. Hehre,  A. Klamt,  
 H. F. Schaefer III,  M. W. Schmidt,  C. D. Sherrill,  D. G. Truhlar,  
 A. Warshel,  X. Xu,  A. Aspuru-Guzik,  R. Baer,  A. T. Bell,  N. A. Besley,  
 J.-D. Chai,  A. Dreuw,  B. D. Dunietz,  T. R. Furlani,  S. R. Gwaltney,  
 C.-P. Hsu,  Y. Jung,  J. Kong,  D. S. Lambrecht,  W. Liang,  C. Ochsenfeld,  
 V. A. Rassolov,  L. V. Slipchenko,  J. E. Subotnik,  T. Van Voorhis,  
 J. M. Herbert,  A. I. Krylov,  P. M. W. Gill,  M. Head-Gordon

 Contributors to earlier versions of Q-Chem not listed above: 
 R. D. Adamson,  J. Baker,  E. F. C. Byrd,  A. K. Chakraborty,  C.-L. Cheng,  
 H. Dachsel,  R. J. Doerksen,  G. Hawkins,  A. Heyden,  S. Hirata,  
 G. Kedziora,  F. J. Keil,  C. Kelley,  P. P. Korambath,  W. Kurlancheek,  
 A. M. Lee,  M. S. Lee,  D. Liotard,  I. Lotan,  P. E. Maslen,  N. Nair,  
 D. Neuhauser,  R. Olson,  B. Peters,  J. Ritchie,  N. E. Schultz,  
 N. Shenvi,  A. C. Simmonett,  K. S. Thanthiriwatte,  Q. Wu,  W. Zhang

 Please cite Q-Chem as follows:
 Y. Shao et al., Mol. Phys. 113, 184-215 (2014)
 DOI: 10.1080/00268976.2014.952696

 Q-Chem 4.3.0 for Intel X86 EM64T Linux

 Parts of Q-Chem use Armadillo 4.550.3 (Singapore Sling Deluxe).
 http://arma.sourceforge.net/

 Q-Chem begins on Wed Aug 12 12:13:18 2015  

Host: n268
0

     Scratch files written to /scratch/3045359.clusman0a.frank.sam.pitt.edu/qchem84984/Frg1//
 Mar1615 |home|dlambrecht|erb74|opt|apps|qchem|trunk_RNUM -1
Processing $rem in /home/dlambrecht/erb74/.qchemrc.
         symmetry = false
       sym_ignore = true
      cc_symmetry = false
  scf_convergence = 8
           thresh = 12
        varthresh = 0
           incdft = 0
          xc_grid = 000100000302 ! (100,302)
 integrals_buffer = 1000
       mem_static = 2000
        cc_memory = 4000
        mem_total = 8000
       ao2mo_disk = 4000
    n_frozen_core = fc
    molden_format = true
   scf_print_frgm = true
           chelpg = true
   scf_max_cycles = 1000

Checking the input file for inconsistencies...	...done.

--------------------------------------------------------------
User input:
--------------------------------------------------------------
$molecule
0 1
 9	3.4802800000	2.2838000000	-1.7501000000
 9	3.0137500000	-0.6444988000	-2.8564000000
 9	4.7858800000	0.6827011000	-2.9553000000
 9	1.8269400000	0.9263000000	-1.8172000000
 9	2.7712200000	1.3688000000	-3.8109000000
 9	3.7083800000	0.2999001000	-0.9099998000
 15	3.2871800000	0.8346004000	-2.3382000000
 7	2.0503500000	-0.9216995000	3.9774000000
 6	2.0794700000	-2.1273990000	4.6735990000
 7	1.1441000000	-1.9804990000	5.6174960000
 6	0.6420994000	-0.6618004000	5.5901990000
 6	1.1472700000	0.0164012910	4.4965000000
 1	2.6912200000	-2.9867990000	4.4468000000
 1	0.0673999790	-0.3323994000	6.4470980000
 1	1.0002990000	0.9798012000	4.0240990000
 6	2.7387100000	-0.7742996000	2.7254010000
 1	2.6675100000	-1.7027990000	2.1532000000
 1	3.7996300000	-0.5114002000	2.7231010000
 1	2.2103200000	0.0531005860	2.2448010000
 6	0.9215097000	-2.8529990000	6.7017970000
 1	0.2820997000	-2.4365010000	7.4842990000
 1	1.8694900000	-3.2635990000	7.0585980000
 6	0.3255997000	-4.1637990000	6.1403010000
 1	-0.6408005000	-3.9976010000	5.6596980000
 1	1.0438500000	-4.4697990000	5.3767970000
 6	0.3418999000	-5.3160000000	7.1679990000
 1	1.3799800000	-5.4450000000	7.4812970000
 1	-0.1515999000	-6.1763000000	6.7110980000
 6	-0.4596004000	-5.1635990000	8.3972970000
 1	-1.5202000000	-5.0874000000	8.1488000000
 1	-0.2294006000	-5.9622990000	9.1054990000
 1	-0.1578007000	-4.3039000000	8.9990960000
$end
$rem
METHOD		B3LYP
BASIS		6-31G**
SCF_CONVERGENCE		8
THRESH		11
XC_GRID		000100000302
CHELPG		TRUE
MOLDEN_FORMAT		FALSE
SYM_IGNORE		TRUE
SYMMETRY		FALSE
!required keywords
JOBTYPE		SP
SYM_IGNORE		TRUE
SUBSYSTEM		TRUE
SAVE_SUBSYSTEM		TRUE
PURECART		12
$end
$external_charges
 0.027100 -4.804699 2.931801 -0.245000
 -1.861000 -2.627399 1.427099 -0.246000
 -1.791201 -4.965599 1.664301 -0.246000
 0.191700 -2.496099 2.357500 -0.246000
 -0.000200 -3.955200 0.651501 -0.246000
 -1.613900 -3.362700 3.421900 -0.246000
 -0.784801 -3.710300 2.038500 0.635000
 0.243199 3.133801 4.989498 -0.245000
 1.120120 5.381400 6.989998 -0.246000
 2.032240 3.434100 6.108398 -0.246000
 -0.778200 4.908601 5.929897 -0.246000
 0.139800 3.382401 7.285099 -0.246000
 1.223030 5.013600 4.761400 -0.246000
 0.671900 4.197201 6.027798 0.635000
 4.009020 2.647000 2.462400 0.177000
 4.934960 2.838700 1.487101 -0.138000
 6.136950 2.387401 1.995001 0.261000
 5.840380 1.808701 3.242399 -0.230000
 4.542250 2.070900 3.605000 -0.126000
 4.759890 3.286901 0.521299 0.195000
 6.658780 1.414801 3.832300 0.225000
 3.947710 1.954201 4.502600 0.189000
 2.618560 2.900801 2.269701 -0.295000
 2.152470 2.068501 1.736300 0.146000
 2.500529 3.796901 1.655100 0.146000
 2.082680 3.078600 3.205601 0.146000
 7.302570 2.164500 1.167400 -0.288000
 7.005670 2.218400 0.116900 0.123000
 7.792140 1.211500 1.383699 0.123000
 8.352409 3.271200 1.439400 0.037000
 8.962110 3.372101 0.539101 0.020000
 7.837359 4.232700 1.387800 0.020000
 9.172970 3.185301 2.774099 0.120000
 8.498270 3.245601 3.630600 0.011000
 9.942838 3.957601 2.832300 0.011000
 9.879436 1.809100 2.882601 -0.267000
 10.623940 1.695801 2.091801 0.078000
 10.511470 1.913501 3.767000 0.078000
 9.194980 0.996700 3.135599 0.078000
 -6.540400 -0.131700 3.595301 0.177000
 -5.636200 0.328901 4.436501 -0.138000
 -4.409201 -0.025499 3.959499 0.261000
 -4.670300 -0.862999 2.879000 -0.230000
 -6.002399 -0.869600 2.610901 -0.126000
 -5.837400 0.678101 5.437496 0.195000
 -3.895101 -1.304100 2.264700 0.225000
 -6.570700 -1.315800 1.804199 0.189000
 -7.940401 0.097200 3.737200 -0.295000
 -8.374701 -0.317600 2.823999 0.146000
 -8.072100 1.181499 3.779100 0.146000
 -8.285601 -0.322701 4.685400 0.146000
 -3.192300 0.199200 4.612101 -0.288000
 -2.789001 -0.764299 4.934101 0.123000
 -3.388801 0.827501 5.484600 0.123000
 -2.359800 1.007101 3.686899 0.037000
 -1.304000 1.034100 3.964500 0.020000
 -2.434000 0.585300 2.682400 0.020000
 -2.899800 2.432501 3.649099 0.120000
 -2.907400 2.852700 4.657000 0.011000
 -3.911700 2.480901 3.241301 0.011000
 -2.118501 3.357100 2.672501 -0.267000
 -1.688200 2.809800 1.831200 0.078000
 -2.795000 4.106800 2.257000 0.078000
 -1.364300 4.013500 3.111500 0.078000
$end
--------------------------------------------------------------
 ----------------------------------------------------------------
             Standard Nuclear Orientation (Angstroms)
    I     Atom           X                Y                Z
 ----------------------------------------------------------------
    1      F       3.4802800000     2.2838000000    -1.7501000000
    2      F       3.0137500000    -0.6444988000    -2.8564000000
    3      F       4.7858800000     0.6827011000    -2.9553000000
    4      F       1.8269400000     0.9263000000    -1.8172000000
    5      F       2.7712200000     1.3688000000    -3.8109000000
    6      F       3.7083800000     0.2999001000    -0.9099998000
    7      P       3.2871800000     0.8346004000    -2.3382000000
    8      N       2.0503500000    -0.9216995000     3.9774000000
    9      C       2.0794700000    -2.1273990000     4.6735990000
   10      N       1.1441000000    -1.9804990000     5.6174960000
   11      C       0.6420994000    -0.6618004000     5.5901990000
   12      C       1.1472700000     0.0164012910     4.4965000000
   13      H       2.6912200000    -2.9867990000     4.4468000000
   14      H       0.0673999790    -0.3323994000     6.4470980000
   15      H       1.0002990000     0.9798012000     4.0240990000
   16      C       2.7387100000    -0.7742996000     2.7254010000
   17      H       2.6675100000    -1.7027990000     2.1532000000
   18      H       3.7996300000    -0.5114002000     2.7231010000
   19      H       2.2103200000     0.0531005860     2.2448010000
   20      C       0.9215097000    -2.8529990000     6.7017970000
   21      H       0.2820997000    -2.4365010000     7.4842990000
   22      H       1.8694900000    -3.2635990000     7.0585980000
   23      C       0.3255997000    -4.1637990000     6.1403010000
   24      H      -0.6408005000    -3.9976010000     5.6596980000
   25      H       1.0438500000    -4.4697990000     5.3767970000
   26      C       0.3418999000    -5.3160000000     7.1679990000
   27      H       1.3799800000    -5.4450000000     7.4812970000
   28      H      -0.1515999000    -6.1763000000     6.7110980000
   29      C      -0.4596004000    -5.1635990000     8.3972970000
   30      H      -1.5202000000    -5.0874000000     8.1488000000
   31      H      -0.2294006000    -5.9622990000     9.1054990000
   32      H      -0.1578007000    -4.3039000000     8.9990960000
 ----------------------------------------------------------------
 Nuclear Repulsion Energy =  1409.7798295888 hartrees
 There are       73 alpha and       73 beta electrons
 Requested basis set is 6-31G(d,p)
 There are 114 shells and 334 basis functions

Total QAlloc Memory Limit   8000 MB
Mega-Array Size      1956 MB
MEM_STATIC part      2000 MB
 A cutoff of  1.0D-11 yielded   3348 shell pairs
 There are     27793 function pairs
 
 -------------------------------------------------------
 OpenMP Integral Computing Module                       
 Release: version 1.0, May 2013, Q-Chem Inc. Pittsburgh 
 -------------------------------------------------------
 Integral Job Info:
 Integral job number is                      11
 Integral operator is                         1
 short-range coefficients               -999999
 long-range coefficients                -999999
 Omega coefficients                           0
 if combine SR and LR in K              -999999
 Integral screening is                        0
 Integral computing path is                   2
 max size of driver memory is            800000
 size of driver memory is                593474
 size of scratch memory is             15166112
 max col of scratch BK array               1296
 max len of scratch array in speh3          155
 max len of scratch index in speh4           18
 max int batch size is                      520
 min int batch size is                       52
 fixed nKL is                                52
 max L of basis functions is                  2
 order of int derivative is                   0
 number of shells is                        114
 number of basis is                         334
 number of cartesian basis is               334
 number of contracted shell pairs          3348
 number of primitive shell pairs          10795
 maxK2 (contraction) of shell pair           36
 max number of K2 of shell pair               1
 max number of CS2 of shell pair            296
 max number of PS2 of shell pair           1362
 mem total for path MDJ                   68008
 -------------------------------------------------------
 Smallest overlap matrix eigenvalue = 1.48E-03

  Scale SEOQF with 1.000000e-01/1.000000e-02/1.000000e-02

 Standard Electronic Orientation quadrupole field applied
 Nucleus-field energy     =     0.0000000073 hartrees
 Adding 64 external point charges to one-electron Hamiltonian
 Nucleus-charge energy    =    -1.7328051315 hartrees
 Charge-charge energy     =    -0.6446820275 hartrees
 Guess from superposition of atomic densities
 Warning:  Energy on first SCF cycle will be non-variational
 A restricted hybrid HF-DFT SCF calculation will be
 performed using Pulay DIIS extrapolation
 Exchange:     0.2000 Hartree-Fock + 0.0800 Slater + 0.7200 Becke88
 Correlation:  0.8100 LYP + 0.1900 VWN1RPA
 Using Euler-Maclaurin-Lebedev (100,302) quadrature formula
 SCF converges when DIIS error is below 1.0E-08
 CPU 0.00 s  wall 0.00 s
 CPU 38.28 s  wall 38.98 s

 Total DFTman time = 38.28 CPUs 38.98 Wall
 ---------------------------------------
  Cycle       Energy         DIIS Error
 ---------------------------------------
    1   -1367.7479287039      3.94E-02
 CPU 0.00 s  wall 0.00 s
 CPU 21.11 s  wall 21.17 s

 Total DFTman time = 21.11 CPUs 21.17 Wall
    2   -1364.2274325050      5.42E-03
 CPU 0.00 s  wall 0.00 s
 CPU 21.27 s  wall 21.33 s

 Total DFTman time = 21.27 CPUs 21.33 Wall
    3   -1364.0679472691      6.83E-03
 CPU 0.00 s  wall 0.00 s
 CPU 21.02 s  wall 21.08 s

 Total DFTman time = 21.02 CPUs 21.08 Wall
    4   -1364.5359667315      6.84E-04
 CPU 0.00 s  wall 0.00 s
 CPU 21.13 s  wall 21.19 s

 Total DFTman time = 21.13 CPUs 21.19 Wall
    5   -1364.5405383654      3.75E-04
 CPU 0.00 s  wall 0.00 s
 CPU 21.18 s  wall 21.24 s

 Total DFTman time = 21.18 CPUs 21.24 Wall
    6   -1364.5424351155      9.39E-05
 CPU 0.00 s  wall 0.00 s
 CPU 21.35 s  wall 21.42 s

 Total DFTman time = 21.35 CPUs 21.42 Wall
    7   -1364.5425296934      3.95E-05
 CPU 0.00 s  wall 0.00 s
 CPU 21.13 s  wall 21.46 s

 Total DFTman time = 21.13 CPUs 21.46 Wall
    8   -1364.5425477842      1.13E-05
 CPU 0.00 s  wall 0.00 s
 CPU 21.20 s  wall 21.26 s

 Total DFTman time = 21.20 CPUs 21.26 Wall
    9   -1364.5425494247      2.32E-06
 CPU 0.00 s  wall 0.00 s
 CPU 21.13 s  wall 21.19 s

 Total DFTman time = 21.13 CPUs 21.19 Wall
   10   -1364.5425494770      8.07E-07
 CPU 0.00 s  wall 0.00 s
 CPU 21.26 s  wall 21.33 s

 Total DFTman time = 21.26 CPUs 21.33 Wall
   11   -1364.5425494837      2.08E-07
 CPU 0.00 s  wall 0.00 s
 CPU 21.08 s  wall 21.13 s

 Total DFTman time = 21.08 CPUs 21.13 Wall
   12   -1364.5425494842      6.28E-08
 CPU 0.00 s  wall 0.00 s
 CPU 21.17 s  wall 21.24 s

 Total DFTman time = 21.17 CPUs 21.24 Wall
   13   -1364.5425494842      1.58E-08
 CPU 0.00 s  wall 0.00 s
 CPU 20.43 s  wall 20.48 s

 Total DFTman time = 20.43 CPUs 20.48 Wall
   14   -1364.5425494842      4.27E-09 Convergence criterion met
 ---------------------------------------
 SCF time:  CPU 403.75 s  wall 406.99 s
 SCF   energy in the final basis set = -1364.5425494842
 Total energy in the final basis set = -1364.5425494842
 Analysis of SCF Wavefunction
 
 --------------------------------------------------------------
 
                    Orbital Energies (a.u.)
 --------------------------------------------------------------
 
 Alpha MOs
 -- Occupied --
-77.211 -24.579 -24.574 -24.562 -24.555 -24.544 -24.538 -14.496
-14.491 -10.356 -10.314 -10.309 -10.291 -10.275 -10.225 -10.214
-10.202  -6.635  -4.801  -4.800  -4.800  -1.163  -1.127  -1.080
 -1.071  -1.069  -1.030  -1.019  -1.019  -0.871  -0.846  -0.815
 -0.767  -0.710  -0.699  -0.670  -0.620  -0.608  -0.555  -0.549
 -0.547  -0.546  -0.541  -0.517  -0.502  -0.494  -0.469  -0.457
 -0.452  -0.441  -0.437  -0.435  -0.433  -0.413  -0.375  -0.373
 -0.368  -0.365  -0.363  -0.358  -0.340  -0.331  -0.326  -0.323
 -0.290  -0.282  -0.281  -0.278  -0.275  -0.272  -0.234  -0.231
 -0.231
 -- Virtual --
 -0.093  -0.052   0.024   0.033   0.044   0.060   0.067   0.080
  0.089   0.104   0.109   0.120   0.122   0.135   0.145   0.148
  0.157   0.160   0.174   0.178   0.184   0.203   0.213   0.236
  0.243   0.256   0.286   0.344   0.348   0.350   0.361   0.391
  0.403   0.420   0.431   0.446   0.458   0.463   0.465   0.474
  0.478   0.483   0.487   0.506   0.508   0.516   0.536   0.552
  0.565   0.602   0.619   0.624   0.643   0.668   0.682   0.702
  0.710   0.719   0.719   0.722   0.730   0.736   0.744   0.756
  0.759   0.780   0.803   0.817   0.828   0.834   0.846   0.852
  0.861   0.870   0.880   0.883   0.898   0.927   0.937   0.970
  0.975   1.030   1.052   1.074   1.081   1.093   1.122   1.167
  1.177   1.183   1.209   1.210   1.223   1.230   1.236   1.248
  1.254   1.268   1.271   1.277   1.282   1.291   1.304   1.312
  1.320   1.331   1.340   1.352   1.402   1.440   1.455   1.511
  1.520   1.526   1.530   1.539   1.548   1.556   1.579   1.617
  1.634   1.646   1.651   1.671   1.673   1.679   1.680   1.738
  1.758   1.779   1.786   1.800   1.801   1.811   1.824   1.830
  1.839   1.864   1.873   1.877   1.898   1.925   1.930   1.932
  1.945   1.948   1.956   1.962   1.966   1.967   1.974   1.982
  1.995   1.997   1.999   2.008   2.019   2.019   2.034   2.045
  2.046   2.052   2.056   2.075   2.100   2.102   2.117   2.128
  2.130   2.156   2.158   2.159   2.177   2.181   2.209   2.209
  2.217   2.239   2.251   2.252   2.263   2.264   2.268   2.302
  2.306   2.311   2.317   2.318   2.323   2.332   2.343   2.362
  2.375   2.377   2.410   2.420   2.443   2.459   2.473   2.497
  2.530   2.556   2.577   2.601   2.620   2.624   2.649   2.685
  2.691   2.715   2.720   2.729   2.749   2.764   2.776   2.803
  2.813   2.841   2.851   2.871   2.872   2.881   2.897   2.914
  2.928   2.998   3.118   3.170   3.175   3.178   3.213   3.274
  3.278   3.300   3.309   3.360   3.374   3.390   3.402   3.448
  3.510   3.525   3.551   3.621   3.954   4.016   4.051   4.099
  4.144   4.159   4.282   4.358   4.418   4.505   4.574   4.611
  4.678   4.820   4.862   4.893   5.274
 --------------------------------------------------------------
 
          Ground-State Mulliken Net Atomic Charges

     Atom                 Charge (a.u.)
  ----------------------------------------
      1 F                    -0.373595
      2 F                    -0.366976
      3 F                    -0.385706
      4 F                    -0.353671
      5 F                    -0.401480
      6 F                    -0.386874
      7 P                     1.270502
      8 N                    -0.441585
      9 C                     0.395546
     10 N                    -0.382786
     11 C                     0.055977
     12 C                     0.114839
     13 H                     0.217187
     14 H                     0.176376
     15 H                     0.211831
     16 C                    -0.195913
     17 H                     0.216464
     18 H                     0.151385
     19 H                     0.154429
     20 C                    -0.093434
     21 H                     0.147841
     22 H                     0.139679
     23 C                    -0.204565
     24 H                     0.162432
     25 H                     0.130986
     26 C                    -0.183842
     27 H                     0.091392
     28 H                     0.134576
     29 C                    -0.321329
     30 H                     0.113108
     31 H                     0.119305
     32 H                     0.087902
  ----------------------------------------
  Sum of atomic charges =    -0.000000

Compute ChElPG charges using a head room of 2.80 A and a grid spacing of 0.300 A
Total Grid Volume 23265.6999425470 A^3
ChElPG fitting will utilize 165981 grid points
CHELPG time 42.86 (cpu) 43.38 (wall) 
         Ground-State ChElPG Net Atomic Charges

     Atom                 Charge (a.u.)
  ----------------------------------------
      1 F                    -0.363014
      2 F                    -0.340017
      3 F                    -0.350979
      4 F                    -0.345046
      5 F                    -0.359521
      6 F                    -0.383458
      7 P                     1.134977
      8 N                     0.084958
      9 C                    -0.105536
     10 N                     0.228690
     11 C                    -0.197681
     12 C                    -0.088497
     13 H                     0.255316
     14 H                     0.212928
     15 H                     0.238448
     16 C                    -0.252726
     17 H                     0.200914
     18 H                     0.107808
     19 H                     0.151162
     20 C                    -0.268765
     21 H                     0.130498
     22 H                     0.111365
     23 C                     0.180154
     24 H                     0.038909
     25 H                    -0.014269
     26 C                    -0.091731
     27 H                     0.036833
     28 H                     0.041815
     29 C                    -0.054212
     30 H                     0.021014
     31 H                     0.036252
     32 H                     0.003413
  ----------------------------------------
  Sum of atomic charges =     0.000000

 -----------------------------------------------------------------
                    Cartesian Multipole Moments
 -----------------------------------------------------------------
    Charge (ESU x 10^10)
                 0.0000
    Dipole Moment (Debye)
         X      -8.4732      Y     -12.3649      Z      33.3810
       Tot      36.5921
    Quadrupole Moments (Debye-Ang)
        XX    -142.0517     XY     -25.2801     YY     -79.7851
        XZ      61.9294     YZ     -37.1073     ZZ     -18.0679
    Octopole Moments (Debye-Ang^2)
       XXX    -781.9577    XXY      38.0277    XYY    -195.9296
       YYY     222.7155    XXZ     -54.6250    XYZ     -26.5842
       YYZ     -42.9595    XZZ    -203.0853    YZZ    -184.8788
       ZZZ      55.2673
    Hexadecapole Moments (Debye-Ang^3)
      XXXX   -4509.2041   XXXY    -341.5966   XXYY   -1294.4682
      XYYY    -215.7351   YYYY   -3605.7578   XXXZ     819.9781
      XXYZ    1058.2008   XYYZ     275.4820   YYYZ    2619.0104
      XXZZ   -3168.9347   XYZZ    -396.1122   YYZZ   -1996.9763
      XZZZ    1008.6244   YZZZ    1645.3084   ZZZZ  -10440.4207
 -----------------------------------------------------------------
Archival summary:
1\1\n268\SP\ProcedureUnspecified\6-31G**\162815\erb74\WedAug1212:20:502015WedAug1212:20:502015\0\\#,ProcedureUnspecified,6-31G**,\\0,1\P\F,1,1.55311\F,1,1.57586,2,86.3146\F,1,1.58211,2,88.1341,3,-86.746,0\F,1,1.59092,2,90.1471,3,-178.208,0\F,1,1.62788,2,176.629,3,149.016,0\F,1,1.64937,2,89.2141,3,94.2866,0\H,4,3.50112,1,136.331,2,11.2571,0\C,8,1.09305,4,104.047,1,-154.755,0\H,9,1.09298,8,112.419,4,57.9,0\H,9,1.09301,8,106.632,4,-57.1917,0\N,9,1.43634,8,103.254,4,176.113,0\C,12,1.39257,9,120.971,8,-156.84,0\H,13,1.079,12,126.61,9,-8.84047,0\N,13,1.33695,12,104.075,9,168.253,0\C,12,1.4018,9,124.253,8,12.9066,0\H,16,1.08301,12,121.413,9,7.21631,0\C,16,1.38251,12,101.541,9,-172.234,0\H,18,1.08308,16,132.112,12,-165.658,0\C,15,1.40944,13,125.846,12,170.234,0\H,20,1.09296,15,110.287,13,-35.2796,0\H,20,1.09299,15,114.033,13,-165.93,0\C,20,1.5455,15,107.844,13,70.3571,0\H,23,1.092,20,103.773,15,-54.1661,0\H,23,1.09203,20,111.841,15,62.5699,0\C,23,1.54402,20,112.769,15,-166.579,0\H,26,1.09197,23,106.808,20,56.8639,0\H,26,1.09198,23,107.737,20,-176.452,0\C,26,1.4754,23,118.148,20,-63.4473,0\H,29,1.09194,26,112.978,23,60.3211,0\H,29,1.09198,26,110.196,23,-62.9243,0\H,29,1.092,26,110.505,23,170.461,0\\\@

 Total job time:  451.77s(wall), 447.11s(cpu) 
 Wed Aug 12 12:20:50 2015

        *************************************************************
        *                                                           *
        *  Thank you very much for using Q-Chem.  Have a nice day.  *
        *                                                           *
        *************************************************************


Copy Fragment Subsystem from /scratch/3045359.clusman0a.frank.sam.pitt.edu/qchem84984/Frg1/

-----------------------------------------------------------------
 SCF on fragment 2 out of 2
-----------------------------------------------------------------

/home/dlambrecht/software/qchem43.trunk.20150505.omp.release/bin/xr.csh  /scratch/3045359.clusman0a.frank.sam.pitt.edu/qchem84984/Frg2.input  stdout  Frg2
/home/dlambrecht/software/qchem43.trunk.20150505.omp.release/bin/xr.csh /scratch/3045359.clusman0a.frank.sam.pitt.edu/qchem84984/Frg2.input stdout Frg2
QCSCRATCH is /scratch/3045359.clusman0a.frank.sam.pitt.edu/qchem84984/Frg2
QCFILEPREF is /scratch/3045359.clusman0a.frank.sam.pitt.edu/qchem84984/Frg2/
-- Serial fragment SCF job
/home/dlambrecht/software/qchem43.trunk.20150505.omp.release/exe/qcprog.exe /scratch/3045359.clusman0a.frank.sam.pitt.edu/qchem84984/Frg2.input /scratch/3045359.clusman0a.frank.sam.pitt.edu/qchem84984/Frg2/
                  Welcome to Q-Chem
     A Quantum Leap Into The Future Of Chemistry


 Q-Chem 4.3, Q-Chem, Inc., Pleasanton, CA (2015)

 Y. Shao,  Z. Gan,  E. Epifanovsky,  A. T. B. Gilbert,  M. Wormit,  
 J. Kussmann,  A. W. Lange,  A. Behn,  J. Deng,  X. Feng,  D. Ghosh,  
 M. Goldey,  P. R. Horn,  L. D. Jacobson,  I. Kaliman,  R. Z. Khaliullin,  
 T. Kus,  A. Landau,  J. Liu,  E. I. Proynov,  Y. M. Rhee,  R. M. Richard,  
 M. A. Rohrdanz,  R. P. Steele,  E. J. Sundstrom,  H. L. Woodcock III,  
 P. M. Zimmerman,  D. Zuev,  B. Albrecht,  E. Alguire,  B. Austin,  
 S. A. Baeppler,  G. J. O. Beran,  Y. A. Bernard,  E. Berquist,  
 K. Brandhorst,  K. B. Bravaya,  S. T. Brown,  D. Casanova,  C.-M. Chang,  
 Y. Chen,  S. H. Chien,  K. D. Closser,  D. L. Crittenden,  M. Diedenhofen,  
 R. A. DiStasio Jr.,  H. Do,  A. D. Dutoi,  R. G. Edgar,  P.-T. Fang,  
 S. Fatehi,  Q. Feng,  L. Fusti-Molnar,  A. Ghysels,  
 A. Golubeva-Zadorozhnaya,  J. Gomes,  A. Gunina,  M. W. D. Hanson-Heine,  
 P. H. P. Harbach,  A. W. Hauser,  E. G. Hohenstein,  Z. C. Holden,  K. Hui,  
 T.-C. Jagau,  H. Ji,  B. Kaduk,  K. Khistyaev,  Jaehoon Kim,  Jihan Kim,  
 R. A. King,  P. Klunzinger,  D. Kosenkov,  T. Kowalczyk,  C. M. Krauter,  
 K. U. Lao,  A. Laurent,  K. V. Lawler,  S. Lehtola,  S. V. Levchenko,  
 C. Y. Lin,  Y.-S. Lin,  F. Liu,  E. Livshits,  R. C. Lochan,  A. Luenser,  
 P. Manohar,  S. F. Manzer,  S.-P. Mao,  N. Mardirossian,  A. V. Marenich,  
 L. A. Martinez-Martinez,  S. A. Maurer,  N. J. Mayhall,  K. Nanda,  
 C. M. Oana,  R. Olivares-Amaya,  D. P. O'Neill,  J. A. Parkhill,  
 T. M. Perrine,  R. Peverati,  P. A. Pieniazek,  F. Plasser,  A. Prociuk,  
 D. R. Rehn,  E. Rosta,  N. J. Russ,  N. Sergueev,  S. M. Sharada,  
 S. Sharma,  D. W. Small,  A. Sodt,  T. Stauch,  T. Stein,  D. Stuck,  
 Y.-C. Su,  A. J. W. Thom,  T. Tsuchimochi,  L. Vogt,  O. Vydrov,  T. Wang,  
 M. A. Watson,  J. Wenzel,  A. White,  C. F. Williams,  V. Vanovschi,  
 S. Yeganeh,  S. R. Yost,  Z.-Q. You,  I. Y. Zhang,  X. Zhang,  Y. Zhao,  
 B. R. Brooks,  G. K. L. Chan,  D. M. Chipman,  C. J. Cramer,  
 W. A. Goddard III,  M. S. Gordon,  W. J. Hehre,  A. Klamt,  
 H. F. Schaefer III,  M. W. Schmidt,  C. D. Sherrill,  D. G. Truhlar,  
 A. Warshel,  X. Xu,  A. Aspuru-Guzik,  R. Baer,  A. T. Bell,  N. A. Besley,  
 J.-D. Chai,  A. Dreuw,  B. D. Dunietz,  T. R. Furlani,  S. R. Gwaltney,  
 C.-P. Hsu,  Y. Jung,  J. Kong,  D. S. Lambrecht,  W. Liang,  C. Ochsenfeld,  
 V. A. Rassolov,  L. V. Slipchenko,  J. E. Subotnik,  T. Van Voorhis,  
 J. M. Herbert,  A. I. Krylov,  P. M. W. Gill,  M. Head-Gordon

 Contributors to earlier versions of Q-Chem not listed above: 
 R. D. Adamson,  J. Baker,  E. F. C. Byrd,  A. K. Chakraborty,  C.-L. Cheng,  
 H. Dachsel,  R. J. Doerksen,  G. Hawkins,  A. Heyden,  S. Hirata,  
 G. Kedziora,  F. J. Keil,  C. Kelley,  P. P. Korambath,  W. Kurlancheek,  
 A. M. Lee,  M. S. Lee,  D. Liotard,  I. Lotan,  P. E. Maslen,  N. Nair,  
 D. Neuhauser,  R. Olson,  B. Peters,  J. Ritchie,  N. E. Schultz,  
 N. Shenvi,  A. C. Simmonett,  K. S. Thanthiriwatte,  Q. Wu,  W. Zhang

 Please cite Q-Chem as follows:
 Y. Shao et al., Mol. Phys. 113, 184-215 (2014)
 DOI: 10.1080/00268976.2014.952696

 Q-Chem 4.3.0 for Intel X86 EM64T Linux

 Parts of Q-Chem use Armadillo 4.550.3 (Singapore Sling Deluxe).
 http://arma.sourceforge.net/

 Q-Chem begins on Wed Aug 12 12:20:50 2015  

Host: n268
0

     Scratch files written to /scratch/3045359.clusman0a.frank.sam.pitt.edu/qchem84984/Frg2//
 Mar1615 |home|dlambrecht|erb74|opt|apps|qchem|trunk_RNUM -1
Processing $rem in /home/dlambrecht/erb74/.qchemrc.
         symmetry = false
       sym_ignore = true
      cc_symmetry = false
  scf_convergence = 8
           thresh = 12
        varthresh = 0
           incdft = 0
          xc_grid = 000100000302 ! (100,302)
 integrals_buffer = 1000
       mem_static = 2000
        cc_memory = 4000
        mem_total = 8000
       ao2mo_disk = 4000
    n_frozen_core = fc
    molden_format = true
   scf_print_frgm = true
           chelpg = true
   scf_max_cycles = 1000

Checking the input file for inconsistencies...	...done.

--------------------------------------------------------------
User input:
--------------------------------------------------------------
$molecule
0 1
 6	0.0000000000	0.0000000000	0.0000000000
 8	-0.1240005000	-0.6795998000	-0.9318008000
 8	0.1239996000	0.6795998000	0.9319000000
$end
$rem
METHOD		B3LYP
BASIS		6-31G**
SCF_CONVERGENCE		8
THRESH		11
XC_GRID		000100000302
CHELPG		TRUE
MOLDEN_FORMAT		FALSE
SYM_IGNORE		TRUE
SYMMETRY		FALSE
!required keywords
JOBTYPE		SP
SYM_IGNORE		TRUE
SUBSYSTEM		TRUE
SAVE_SUBSYSTEM		TRUE
PURECART		12
$end
$external_charges
 0.027100 -4.804699 2.931801 -0.245000
 -1.861000 -2.627399 1.427099 -0.246000
 -1.791201 -4.965599 1.664301 -0.246000
 0.191700 -2.496099 2.357500 -0.246000
 -0.000200 -3.955200 0.651501 -0.246000
 -1.613900 -3.362700 3.421900 -0.246000
 -0.784801 -3.710300 2.038500 0.635000
 0.243199 3.133801 4.989498 -0.245000
 1.120120 5.381400 6.989998 -0.246000
 2.032240 3.434100 6.108398 -0.246000
 -0.778200 4.908601 5.929897 -0.246000
 0.139800 3.382401 7.285099 -0.246000
 1.223030 5.013600 4.761400 -0.246000
 0.671900 4.197201 6.027798 0.635000
 4.009020 2.647000 2.462400 0.177000
 4.934960 2.838700 1.487101 -0.138000
 6.136950 2.387401 1.995001 0.261000
 5.840380 1.808701 3.242399 -0.230000
 4.542250 2.070900 3.605000 -0.126000
 4.759890 3.286901 0.521299 0.195000
 6.658780 1.414801 3.832300 0.225000
 3.947710 1.954201 4.502600 0.189000
 2.618560 2.900801 2.269701 -0.295000
 2.152470 2.068501 1.736300 0.146000
 2.500529 3.796901 1.655100 0.146000
 2.082680 3.078600 3.205601 0.146000
 7.302570 2.164500 1.167400 -0.288000
 7.005670 2.218400 0.116900 0.123000
 7.792140 1.211500 1.383699 0.123000
 8.352409 3.271200 1.439400 0.037000
 8.962110 3.372101 0.539101 0.020000
 7.837359 4.232700 1.387800 0.020000
 9.172970 3.185301 2.774099 0.120000
 8.498270 3.245601 3.630600 0.011000
 9.942838 3.957601 2.832300 0.011000
 9.879436 1.809100 2.882601 -0.267000
 10.623940 1.695801 2.091801 0.078000
 10.511470 1.913501 3.767000 0.078000
 9.194980 0.996700 3.135599 0.078000
 -6.540400 -0.131700 3.595301 0.177000
 -5.636200 0.328901 4.436501 -0.138000
 -4.409201 -0.025499 3.959499 0.261000
 -4.670300 -0.862999 2.879000 -0.230000
 -6.002399 -0.869600 2.610901 -0.126000
 -5.837400 0.678101 5.437496 0.195000
 -3.895101 -1.304100 2.264700 0.225000
 -6.570700 -1.315800 1.804199 0.189000
 -7.940401 0.097200 3.737200 -0.295000
 -8.374701 -0.317600 2.823999 0.146000
 -8.072100 1.181499 3.779100 0.146000
 -8.285601 -0.322701 4.685400 0.146000
 -3.192300 0.199200 4.612101 -0.288000
 -2.789001 -0.764299 4.934101 0.123000
 -3.388801 0.827501 5.484600 0.123000
 -2.359800 1.007101 3.686899 0.037000
 -1.304000 1.034100 3.964500 0.020000
 -2.434000 0.585300 2.682400 0.020000
 -2.899800 2.432501 3.649099 0.120000
 -2.907400 2.852700 4.657000 0.011000
 -3.911700 2.480901 3.241301 0.011000
 -2.118501 3.357100 2.672501 -0.267000
 -1.688200 2.809800 1.831200 0.078000
 -2.795000 4.106800 2.257000 0.078000
 -1.364300 4.013500 3.111500 0.078000
$end
--------------------------------------------------------------
 ----------------------------------------------------------------
             Standard Nuclear Orientation (Angstroms)
    I     Atom           X                Y                Z
 ----------------------------------------------------------------
    1      C       0.0000000000     0.0000000000     0.0000000000
    2      O      -0.1240005000    -0.6795998000    -0.9318008000
    3      O       0.1239996000     0.6795998000     0.9319000000
 ----------------------------------------------------------------
 Nuclear Repulsion Energy =    58.3924656843 hartrees
 There are       11 alpha and       11 beta electrons
 Requested basis set is 6-31G(d,p)
 There are 12 shells and 45 basis functions

Total QAlloc Memory Limit   8000 MB
Mega-Array Size      1956 MB
MEM_STATIC part      2000 MB

                       Distance Matrix (Angstroms)
             C (  1)   O (  2)
   O (  2)  1.159950
   O (  3)  1.160030  2.319980
 
 A cutoff of  1.0D-11 yielded     77 shell pairs
 There are      1115 function pairs
 
 -------------------------------------------------------
 OpenMP Integral Computing Module                       
 Release: version 1.0, May 2013, Q-Chem Inc. Pittsburgh 
 -------------------------------------------------------
 Integral Job Info:
 Integral job number is                      11
 Integral operator is                         1
 short-range coefficients               -999999
 long-range coefficients                -999999
 Omega coefficients                           0
 if combine SR and LR in K              -999999
 Integral screening is                        0
 Integral computing path is                   2
 max size of driver memory is            800000
 size of driver memory is                593474
 size of scratch memory is              2260544
 max col of scratch BK array               1296
 max len of scratch array in speh3          155
 max len of scratch index in speh4           18
 max int batch size is                      520
 min int batch size is                       52
 fixed nKL is                                52
 max L of basis functions is                  2
 order of int derivative is                   0
 number of shells is                         12
 number of basis is                          45
 number of cartesian basis is                45
 number of contracted shell pairs            77
 number of primitive shell pairs            477
 maxK2 (contraction) of shell pair           36
 max number of K2 of shell pair               1
 max number of CS2 of shell pair             11
 max number of PS2 of shell pair            108
 mem total for path MDJ                   12910
 -------------------------------------------------------
 Smallest overlap matrix eigenvalue = 2.80E-03

  Scale SEOQF with 1.000000e+00/1.000000e+00/1.000000e+00

 Standard Electronic Orientation quadrupole field applied
 Nucleus-field energy     =    -0.0000000095 hartrees
 Adding 64 external point charges to one-electron Hamiltonian
 Nucleus-charge energy    =    -0.4204896562 hartrees
 Charge-charge energy     =    -0.6446820275 hartrees
 Guess from superposition of atomic densities
 Warning:  Energy on first SCF cycle will be non-variational
 A restricted hybrid HF-DFT SCF calculation will be
 performed using Pulay DIIS extrapolation
 Exchange:     0.2000 Hartree-Fock + 0.0800 Slater + 0.7200 Becke88
 Correlation:  0.8100 LYP + 0.1900 VWN1RPA
 Using Euler-Maclaurin-Lebedev (100,302) quadrature formula
 SCF converges when DIIS error is below 1.0E-08
 CPU 0.00 s  wall 0.00 s
 CPU 0.28 s  wall 0.28 s

 Total DFTman time = 0.28 CPUs 0.28 Wall
 ---------------------------------------
  Cycle       Energy         DIIS Error
 ---------------------------------------
    1    -189.7681840413      1.28E-01
 CPU 0.00 s  wall 0.00 s
 CPU 0.33 s  wall 0.33 s

 Total DFTman time = 0.33 CPUs 0.33 Wall
    2    -189.1464743585      2.11E-02
 CPU 0.00 s  wall 0.00 s
 CPU 0.33 s  wall 0.33 s

 Total DFTman time = 0.33 CPUs 0.33 Wall
    3    -188.9877509150      3.67E-02
 CPU 0.00 s  wall 0.00 s
 CPU 0.33 s  wall 0.33 s

 Total DFTman time = 0.33 CPUs 0.33 Wall
    4    -189.2273418775      1.45E-03
 CPU 0.00 s  wall 0.00 s
 CPU 0.33 s  wall 0.33 s

 Total DFTman time = 0.33 CPUs 0.33 Wall
    5    -189.2271629139      1.78E-03
 CPU 0.00 s  wall 0.00 s
 CPU 0.33 s  wall 0.33 s

 Total DFTman time = 0.33 CPUs 0.33 Wall
    6    -189.2277572209      2.42E-04
 CPU 0.00 s  wall 0.00 s
 CPU 0.33 s  wall 0.33 s

 Total DFTman time = 0.33 CPUs 0.33 Wall
    7    -189.2277693191      2.45E-05
 CPU 0.00 s  wall 0.00 s
 CPU 0.33 s  wall 0.33 s

 Total DFTman time = 0.33 CPUs 0.33 Wall
    8    -189.2277694202      3.34E-06
 CPU 0.00 s  wall 0.00 s
 CPU 0.34 s  wall 0.34 s

 Total DFTman time = 0.34 CPUs 0.34 Wall
    9    -189.2277694223      4.83E-07
 CPU 0.00 s  wall 0.00 s
 CPU 0.34 s  wall 0.34 s

 Total DFTman time = 0.34 CPUs 0.34 Wall
   10    -189.2277694223      3.44E-08
 CPU 0.00 s  wall 0.00 s
 CPU 0.34 s  wall 0.34 s

 Total DFTman time = 0.34 CPUs 0.34 Wall
   11    -189.2277694223      5.53E-09 Convergence criterion met
 ---------------------------------------
 SCF time:  CPU 3.92 s  wall 4.59 s
 SCF   energy in the final basis set = -189.2277694223
 Total energy in the final basis set = -189.2277694223
 Analysis of SCF Wavefunction
 
 --------------------------------------------------------------
 
                    Orbital Energies (a.u.)
 --------------------------------------------------------------
 
 Alpha MOs
 -- Occupied --
-19.217 -19.215 -10.364  -1.146  -1.105  -0.543  -0.499  -0.498
 -0.496  -0.352  -0.351
 -- Virtual --
  0.054   0.056   0.110   0.385   0.489   0.496   0.612   0.759
  0.799   0.891   0.895   1.060   1.065   1.074   1.402   1.410
  1.410   1.432   1.433   1.744   1.744   1.854   2.055   2.055
  2.153   2.155   2.770   2.944   2.988   2.989   3.085   3.774
  4.429   4.479
 --------------------------------------------------------------
 
          Ground-State Mulliken Net Atomic Charges

     Atom                 Charge (a.u.)
  ----------------------------------------
      1 C                     0.727697
      2 O                    -0.345555
      3 O                    -0.382142
  ----------------------------------------
  Sum of atomic charges =    -0.000000

Compute ChElPG charges using a head room of 2.80 A and a grid spacing of 0.300 A
Total Grid Volume 5990.8906286182 A^3
ChElPG fitting will utilize 49818 grid points
CHELPG time 0.61 (cpu) 0.95 (wall) 
         Ground-State ChElPG Net Atomic Charges

     Atom                 Charge (a.u.)
  ----------------------------------------
      1 C                     0.733388
      2 O                    -0.347090
      3 O                    -0.386298
  ----------------------------------------
  Sum of atomic charges =     0.000000

 -----------------------------------------------------------------
                    Cartesian Multipole Moments
 -----------------------------------------------------------------
    Charge (ESU x 10^10)
                -0.0000
    Dipole Moment (Debye)
         X      -0.0647      Y      -0.2944      Z      -0.0511
       Tot       0.3057
    Quadrupole Moments (Debye-Ang)
        XX     -14.4699     XY      -0.2961     YY     -15.9580
        XZ      -0.4054     YZ      -2.1583     ZZ     -17.3493
    Octopole Moments (Debye-Ang^2)
       XXX      -0.0668    XXY      -0.1113    XYY      -0.0695
       YYY      -0.5146    XXZ      -0.0336    XYZ      -0.0452
       YYZ      -0.2204    XZZ      -0.0540    YZZ      -0.2361
       ZZZ      -0.0612
    Hexadecapole Moments (Debye-Ang^3)
      XXXX     -11.2969   XXXY      -2.7210   XXYY      -8.5570
      XYYY      -2.7806   YYYY     -40.2554   XXXZ      -3.7307
      XXYZ      -6.8106   XYYZ      -1.3298   YYYZ     -20.7977
      XXZZ     -12.9294   XYZZ      -1.0258   YYZZ     -18.2763
      XZZZ      -3.8867   YZZZ     -21.1911   ZZZZ     -67.2233
 -----------------------------------------------------------------
Archival summary:
1\1\n268\SP\ProcedureUnspecified\6-31G**\21\erb74\WedAug1212:20:572015WedAug1212:20:572015\0\\#,ProcedureUnspecified,6-31G**,\\0,1\C\O,1,1.15995\O,1,1.16003,2,179.997\\\@

 Total job time:  7.02s(wall), 4.67s(cpu) 
 Wed Aug 12 12:20:57 2015

        *************************************************************
        *                                                           *
        *  Thank you very much for using Q-Chem.  Have a nice day.  *
        *                                                           *
        *************************************************************


Copy Fragment Subsystem from /scratch/3045359.clusman0a.frank.sam.pitt.edu/qchem84984/Frg2/

-----------------------------------------------------------------
 Done with SCF on isolated fragments
-----------------------------------------------------------------

 User-specified occupied guess orbitals will be used
 A restricted hybrid HF-DFT SCF calculation will be
 performed using Pulay DIIS extrapolation
 Locally projected approximation of Stoll
 with single Roothaan step correction
 Exchange:     0.2000 Hartree-Fock + 0.0800 Slater + 0.7200 Becke88
 Correlation:  0.8100 LYP + 0.1900 VWN1RPA
 Using Euler-Maclaurin-Lebedev (100,302) quadrature formula
 SCF converges when DIIS error is below 1.0E-08
 CPU 0.00 s  wall 0.00 s
 CPU 57.75 s  wall 58.78 s

 Total DFTman time = 57.75 CPUs 58.78 Wall
 ---------------------------------------
  Cycle       Energy         DIIS Error
 ---------------------------------------
    1   -1553.1250967013      4.78E-04
 CPU 0.00 s  wall 0.00 s
 CPU 25.00 s  wall 25.07 s

 Total DFTman time = 25.00 CPUs 25.07 Wall
    2   -1553.1249975023      6.51E-04
 CPU 0.00 s  wall 0.00 s
 CPU 25.07 s  wall 25.24 s

 Total DFTman time = 25.07 CPUs 25.24 Wall
    3   -1553.1272688137      2.94E-04
 CPU 0.00 s  wall 0.00 s
 CPU 25.18 s  wall 25.25 s

 Total DFTman time = 25.18 CPUs 25.25 Wall
    4   -1553.1277906961      4.79E-05
 CPU 0.00 s  wall 0.00 s
 CPU 25.29 s  wall 25.36 s

 Total DFTman time = 25.29 CPUs 25.36 Wall
    5   -1553.1277985571      3.15E-05
 CPU 0.00 s  wall 0.00 s
 CPU 25.20 s  wall 25.27 s

 Total DFTman time = 25.20 CPUs 25.27 Wall
    6   -1553.1278037840      3.92E-06
 CPU 0.00 s  wall 0.00 s
 CPU 25.38 s  wall 25.46 s

 Total DFTman time = 25.38 CPUs 25.46 Wall
    7   -1553.1278038278      2.96E-06
 CPU 0.00 s  wall 0.00 s
 CPU 25.27 s  wall 25.34 s

 Total DFTman time = 25.27 CPUs 25.34 Wall
    8   -1553.1278038773      4.21E-07
 CPU 0.00 s  wall 0.00 s
 CPU 25.48 s  wall 25.56 s

 Total DFTman time = 25.48 CPUs 25.56 Wall
    9   -1553.1278038783      1.49E-07
 CPU 0.00 s  wall 0.00 s
 CPU 25.33 s  wall 25.41 s

 Total DFTman time = 25.33 CPUs 25.41 Wall
   10   -1553.1278038786      5.17E-08
 CPU 0.00 s  wall 0.00 s
 CPU 25.43 s  wall 25.50 s

 Total DFTman time = 25.43 CPUs 25.50 Wall
   11   -1553.1278038787      1.49E-08
 CPU 0.00 s  wall 0.00 s
 CPU 25.18 s  wall 25.26 s

 Total DFTman time = 25.18 CPUs 25.26 Wall
Last iteration: RS correction
SCF MI energy: -1553.1278038792
SCF MI(RS) energy: -1553.1335577446
   12   -1553.1335577446      5.00E-09 Convergence criterion met
 ---------------------------------------
 SCF time:  CPU 422.11 s  wall 426.31 s
-----------------------------------------------------
 full SCF correction to the locally projected method
-----------------------------------------------------
 A restricted hybrid HF-DFT SCF calculation will be
 performed using Pulay DIIS extrapolation
 Exchange:     0.2000 Hartree-Fock + 0.0800 Slater + 0.7200 Becke88
 Correlation:  0.8100 LYP + 0.1900 VWN1RPA
 Using Euler-Maclaurin-Lebedev (100,302) quadrature formula
 SCF converges when DIIS error is below 1.0E-08
 CPU 0.00 s  wall 0.00 s
 CPU 25.26 s  wall 25.34 s

 Total DFTman time = 25.26 CPUs 25.34 Wall
 ---------------------------------------
  Cycle       Energy         DIIS Error
 ---------------------------------------
    1   -1553.1338336821      6.37E-05
 CPU 0.00 s  wall 0.00 s
 CPU 25.18 s  wall 25.33 s

 Total DFTman time = 25.18 CPUs 25.33 Wall
    2   -1553.1338151459      8.54E-05
 CPU 0.00 s  wall 0.00 s
 CPU 25.24 s  wall 25.31 s

 Total DFTman time = 25.24 CPUs 25.31 Wall
    3   -1553.1338926647      2.40E-05
 CPU 0.00 s  wall 0.00 s
 CPU 25.21 s  wall 25.28 s

 Total DFTman time = 25.21 CPUs 25.28 Wall
    4   -1553.1338990442      1.12E-05
 CPU 0.00 s  wall 0.00 s
 CPU 25.40 s  wall 25.48 s

 Total DFTman time = 25.40 CPUs 25.48 Wall
    5   -1553.1339005931      2.35E-06
 CPU 0.00 s  wall 0.00 s
 CPU 25.26 s  wall 25.33 s

 Total DFTman time = 25.26 CPUs 25.33 Wall
    6   -1553.1339006538      9.99E-07
 CPU 0.00 s  wall 0.00 s
 CPU 25.31 s  wall 25.39 s

 Total DFTman time = 25.31 CPUs 25.39 Wall
    7   -1553.1339006673      1.78E-07
 CPU 0.00 s  wall 0.00 s
 CPU 25.37 s  wall 25.45 s

 Total DFTman time = 25.37 CPUs 25.45 Wall
    8   -1553.1339006678      8.67E-08
 CPU 0.00 s  wall 0.00 s
 CPU 25.39 s  wall 25.46 s

 Total DFTman time = 25.39 CPUs 25.46 Wall
    9   -1553.1339006684      1.96E-08
 CPU 0.00 s  wall 0.00 s
 CPU 24.57 s  wall 24.64 s

 Total DFTman time = 24.57 CPUs 24.64 Wall
   10   -1553.1339006689      6.64E-09 Convergence criterion met
 ---------------------------------------
 SCF time:  CPU 324.79 s  wall 327.04 s
 Molecular orbitals are replaced with COVPs
 SCF   energy in the final basis set = -1553.1339006689
 Total energy in the final basis set = -1553.1339006689
 Analysis of SCF Wavefunction
 
 --------------------------------------------------------------
 
                    Orbital Energies (a.u.)
 --------------------------------------------------------------
 
 Alpha MOs
 -- Occupied --
 -3.112  -0.923  -0.234  -0.077  -0.054  -0.032  -0.024  -0.020
 -0.011  -0.010  -0.002  -0.001  -0.001  -0.001  -0.000  -0.000
 -0.000  -0.000  -0.000  -0.000  -0.000  -0.000  -0.000  -0.000
 -0.000  -0.000  -0.000  -0.000  -0.000  -0.000  -0.000  -0.000
 -0.000  -0.000   0.000   0.000   0.000   0.000   0.000   0.000
  0.000   0.000   0.000   0.000   0.000   0.000   0.000   0.000
  0.000   0.000   0.000   0.000   0.000   0.000   0.000   0.000
  0.000   0.000   0.000   0.000   0.000   0.000   0.000   0.000
  0.000   0.000   0.000   0.000   0.000   0.000   0.000   0.000
  0.000  -2.208  -0.380  -0.213  -0.151  -0.053  -0.034  -0.005
 -0.003  -0.001  -0.000  -0.000
 -- Virtual --
 -2.208  -0.380  -0.213  -0.151  -0.053  -0.034  -0.005  -0.003
 -0.001  -0.000  -0.000   0.000   0.000   0.000   0.000   0.000
  0.000   0.000   0.000   0.000   0.000   0.000   0.000   0.000
  0.000   0.000   0.000   0.000   0.000   0.000   0.000   0.000
  0.000   0.000   0.000   0.000   0.000   0.000   0.000   0.000
  0.000   0.000   0.000   0.000   0.000   0.000   0.000   0.000
  0.000   0.000   0.000   0.000   0.000   0.000   0.000   0.000
  0.000   0.000   0.000   0.000   0.000   0.000   0.000   0.000
  0.000   0.000   0.000   0.000   0.000   0.000   0.000   0.000
  0.000   0.000   0.000   0.000   0.000   0.000   0.000   0.000
  0.000   0.000   0.000   0.000   0.000   0.000   0.000   0.000
  0.000   0.000   0.000   0.000   0.000   0.000   0.000   0.000
  0.000   0.000   0.000   0.000   0.000   0.000   0.000   0.000
  0.000   0.000   0.000   0.000   0.000   0.000   0.000   0.000
  0.000   0.000   0.000   0.000   0.000   0.000   0.000   0.000
  0.000   0.000   0.000   0.000   0.000   0.000   0.000   0.000
  0.000   0.000   0.000   0.000   0.000   0.000   0.000   0.000
  0.000   0.000   0.000   0.000   0.000   0.000   0.000   0.000
  0.000   0.000   0.000   0.000   0.000   0.000   0.000   0.000
  0.000   0.000   0.000   0.000   0.000   0.000   0.000   0.000
  0.000   0.000   0.000   0.000   0.000   0.000   0.000   0.000
  0.000   0.000   0.000   0.000   0.000   0.000   0.000   0.000
  0.000   0.000   0.000   0.000   0.000   0.000   0.000   0.000
  0.000   0.000   0.000   0.000   0.000   0.000   0.000   0.000
  0.000   0.000   0.000   0.000   0.000   0.000   0.000   0.000
  0.000   0.000   0.000   0.000   0.000   0.000   0.000   0.000
  0.000   0.000   0.000   0.000   0.000   0.000   0.000   0.000
  0.000   0.000   0.000   0.000   0.000   0.000   0.000   0.000
  0.000   0.000   0.000   0.000   0.000   0.000   0.000   0.000
  0.000   0.000   0.000   0.000   0.000   0.000   0.000   0.000
  0.000   0.000   0.000   0.000   0.000   0.000   0.000   0.000
  0.000   0.000   0.000   0.000   0.000   0.000   0.000   0.000
  0.000   0.000   0.000   0.000   0.000  -3.112  -0.923  -0.234
 -0.077  -0.054  -0.032  -0.024  -0.020  -0.011  -0.010  -0.002
 -0.001  -0.001  -0.001  -0.000  -0.000  -0.000  -0.000  -0.000
 -0.000  -0.000  -0.000  -0.000  -0.000  -0.000  -0.000  -0.000
 -0.000  -0.000  -0.000  -0.000  -0.000  -0.000  -0.000
 --------------------------------------------------------------
 
          Ground-State Mulliken Net Atomic Charges

     Atom                 Charge (a.u.)
  ----------------------------------------
      1 F                    -0.370815
      2 F                    -0.365104
      3 F                    -0.383705
      4 F                    -0.351035
      5 F                    -0.398812
      6 F                    -0.386885
      7 P                     1.279664
      8 N                    -0.441913
      9 C                     0.393174
     10 N                    -0.382979
     11 C                     0.052811
     12 C                     0.117709
     13 H                     0.214967
     14 H                     0.174838
     15 H                     0.219623
     16 C                    -0.204660
     17 H                     0.208245
     18 H                     0.147600
     19 H                     0.159572
     20 C                    -0.092285
     21 H                     0.147248
     22 H                     0.138737
     23 C                    -0.204187
     24 H                     0.161596
     25 H                     0.130401
     26 C                    -0.183693
     27 H                     0.091177
     28 H                     0.133777
     29 C                    -0.321124
     30 H                     0.112774
     31 H                     0.118778
     32 H                     0.088112
     33 C                     0.745836
     34 O                    -0.314741
     35 O                    -0.434699
  ----------------------------------------
  Sum of atomic charges =    -0.000000

Compute ChElPG charges using a head room of 2.80 A and a grid spacing of 0.300 A
Total Grid Volume 26359.1506804338 A^3
ChElPG fitting will utilize 176631 grid points
CHELPG time 54.35 (cpu) 54.85 (wall) 
         Ground-State ChElPG Net Atomic Charges

     Atom                 Charge (a.u.)
  ----------------------------------------
      1 F                    -0.356836
      2 F                    -0.326120
      3 F                    -0.343073
      4 F                    -0.318229
      5 F                    -0.353967
      6 F                    -0.376856
      7 P                     1.097481
      8 N                     0.086759
      9 C                    -0.111647
     10 N                     0.227693
     11 C                    -0.198013
     12 C                    -0.093974
     13 H                     0.252760
     14 H                     0.212508
     15 H                     0.245072
     16 C                    -0.229892
     17 H                     0.191120
     18 H                     0.096409
     19 H                     0.145365
     20 C                    -0.270115
     21 H                     0.131232
     22 H                     0.112720
     23 C                     0.179472
     24 H                     0.038839
     25 H                    -0.013650
     26 C                    -0.089163
     27 H                     0.036090
     28 H                     0.041316
     29 C                    -0.064649
     30 H                     0.023436
     31 H                     0.038937
     32 H                     0.005534
     33 C                     0.734286
     34 O                    -0.318343
     35 O                    -0.432499
  ----------------------------------------
  Sum of atomic charges =    -0.000000

 -----------------------------------------------------------------
                    Cartesian Multipole Moments
 -----------------------------------------------------------------
    Charge (ESU x 10^10)
                 0.0000
    Dipole Moment (Debye)
         X      -8.3731      Y     -12.4709      Z      32.3145
       Tot      35.6351
    Quadrupole Moments (Debye-Ang)
        XX    -156.1993     XY     -25.0413     YY     -96.2006
        XZ      60.3502     YZ     -38.5565     ZZ     -36.1597
    Octopole Moments (Debye-Ang^2)
       XXX    -780.1903    XXY      39.8242    XYY    -195.9780
       YYY     224.9999    XXZ     -58.7661    XYZ     -26.0119
       YYZ     -47.1080    XZZ    -202.7046    YZZ    -179.7759
       ZZZ      43.4312
    Hexadecapole Moments (Debye-Ang^3)
      XXXX   -4511.7734   XXXY    -337.9074   XXYY   -1303.0760
      XYYY    -215.6911   YYYY   -3657.8167   XXXZ     801.9561
      XXYZ    1053.1296   XYYZ     270.5462   YYYZ    2613.1784
      XXZZ   -3181.2734   XYZZ    -391.2606   YYZZ   -2034.6063
      XZZZ     991.2279   YZZZ    1655.1511   ZZZZ  -10558.4570
 -----------------------------------------------------------------

 ---------------------------------------------------------------------
 *                   Energy decomposition analysis                   *
 *  R.Z.Khaliullin, E.A.Cobar, R.C.Lochan, A.T.Bell, M.Head-Gordon   *
 *              J. Phys. Chem. A, 2007, 111, 8753-8765.              *
 ---------------------------------------------------------------------
   Fragment           E(TOTAL)      E(RS CP-CORR)     E(SCF CP-CORR)
 ---------------------------------------------------------------------
          1   -1364.5425494842                N/A                N/A
          2    -189.2277694223                N/A                N/A
 ---------------------------------------------------------------------
   initial    -1553.1250967013
    SCF MI    -1553.1278038792
        RS    -1553.1335577446
       SCF    -1553.1339006689
 ---------------------------------------------------------------------
                                       Energy term         DE, kJ/mol
 ---------------------------------------------------------------------
                            Frozen Density ( FRZ )         1694.05100
                              Polarization ( POL )           -7.10778
                       RS Delocalization ( P-DEL )          -15.10695
                      SCF Delocalization ( V-DEL )          -16.00731
 ---------------------------------------------------------------------
            RS Total ( P-TOT = FRZ + POL + P-DEL )         1671.83627
           SCF Total ( V-TOT = FRZ + POL + V-DEL )         1670.93591
    Higher order relaxation ( HO = V-TOT - P-TOT )           -0.90036

 *-------------------------------------------------------------------* 
 *      Energy decomposition of the delocalization term, kJ/mol      * 
 *-------------------------------------------------------------------* 
                DEL from fragment(row) to fragment(col)                
  -------------------------------------------------------------------    
             1           2
    1     0.00000    -9.01048
    2    -6.09647    -0.00000
 ---------------------------------------------------------------------


 --------------------------------------------------------------------- 
 *                     Charge transfer analysis                      * 
 *             R.Z.Khaliullin, A.T. Bell, M.Head-Gordon              * 
 *                J. Chem. Phys., 2008, 128, 184112                  * 
 *-------------------------------------------------------------------* 
                       Fragment population, a.u.                       
 --------------------------------------------------------------------- 
    Method   Fragment         Occ         Vir     Occ+Vir    Isolated
 --------------------------------------------------------------------- 
    SCF MI          1  146.000000    0.000000  146.000000  146.000000
                    2   22.000000    0.000000   22.000000   22.000000
 --------------------------------------------------------------------- 
        RS          1  145.995301    0.003660  145.998960  146.000000
                    2   21.996306    0.004734   22.001040   22.000000
 --------------------------------------------------------------------- 
       SCF          1  145.994668    0.004200  145.998869  146.000000
                    2   21.995772    0.005359   22.001131   22.000000
 --------------------------------------------------------------------- 
                           Total electron transfer            DQ, me-
 --------------------------------------------------------------------- 
                                 RS Delocalization           8.393284
                                SCF Delocalization           9.559633
              Higher order relaxation ( SCF - RS )           1.166349


 *-------------------------------------------------------------------* 
 *      Decomposition of the total RS charge-transfer term, me-      * 
 *-------------------------------------------------------------------* 
           Delocalization from fragment(row) to fragment(col)          
  -------------------------------------------------------------------    
             1           2
    1    -0.13754     4.83685
    2     3.79730    -0.10332
  -------------------------------------------------------------------  


 --------------------------------------------------------------------- 
 *               Complementary occupied-virtual pairs                * 
 *                  Delta E, kJ/mol; Delta Q, me-                    * 
 *                        No BSSE correction                         * 
 --------------------------------------------------------------------- 
   From fragment 1 to fragment 2
 --------------------------------------------------------------------- 
   #   Delta E(Alpha)    Delta E(Beta)  Delta Q(Alpha)   Delta Q(Beta)
 --------------------------------------------------------------------- 
   1  -3.1119( 69.1%)  -3.1119( 69.1%)   1.805( 74.7%)   1.805( 74.7%)
   2  -0.9232( 20.5%)  -0.9232( 20.5%)   0.415( 17.2%)   0.415( 17.2%)
   3  -0.2344(  5.2%)  -0.2344(  5.2%)   0.119(  4.9%)   0.119(  4.9%)
   4  -0.0771(  1.7%)  -0.0771(  1.7%)   0.034(  1.4%)   0.034(  1.4%)
   5  -0.0536(  1.2%)  -0.0536(  1.2%)   0.016(  0.7%)   0.016(  0.7%)
   6  -0.0324(  0.7%)  -0.0324(  0.7%)   0.010(  0.4%)   0.010(  0.4%)
   7  -0.0245(  0.5%)  -0.0245(  0.5%)   0.009(  0.4%)   0.009(  0.4%)
   8  -0.0197(  0.4%)  -0.0197(  0.4%)   0.005(  0.2%)   0.005(  0.2%)
   9  -0.0111(  0.2%)  -0.0111(  0.2%)   0.003(  0.1%)   0.003(  0.1%)
  10  -0.0104(  0.2%)  -0.0104(  0.2%)   0.002(  0.1%)   0.002(  0.1%)
  11  -0.0023(  0.1%)  -0.0023(  0.1%)   0.001(  0.0%)   0.001(  0.0%)
  12  -0.0011(  0.0%)  -0.0011(  0.0%)   0.000(  0.0%)   0.000(  0.0%)
  13  -0.0011(  0.0%)  -0.0011(  0.0%)   0.000(  0.0%)   0.000(  0.0%)
  14  -0.0009(  0.0%)  -0.0009(  0.0%)   0.000(  0.0%)   0.000(  0.0%)
  15  -0.0005(  0.0%)  -0.0005(  0.0%)   0.000(  0.0%)   0.000(  0.0%)
  16  -0.0004(  0.0%)  -0.0004(  0.0%)   0.000(  0.0%)   0.000(  0.0%)
  17  -0.0003(  0.0%)  -0.0003(  0.0%)   0.000(  0.0%)   0.000(  0.0%)
  18  -0.0001(  0.0%)  -0.0001(  0.0%)   0.000(  0.0%)   0.000(  0.0%)
  19  -0.0001(  0.0%)  -0.0001(  0.0%)   0.000(  0.0%)   0.000(  0.0%)
  20  -0.0001(  0.0%)  -0.0001(  0.0%)   0.000(  0.0%)   0.000(  0.0%)
  21  -0.0001(  0.0%)  -0.0001(  0.0%)   0.000(  0.0%)   0.000(  0.0%)
  22  -0.0000(  0.0%)  -0.0000(  0.0%)   0.000(  0.0%)   0.000(  0.0%)
  23  -0.0000(  0.0%)  -0.0000(  0.0%)   0.000(  0.0%)   0.000(  0.0%)
  24  -0.0000(  0.0%)  -0.0000(  0.0%)   0.000(  0.0%)   0.000(  0.0%)
  25  -0.0000(  0.0%)  -0.0000(  0.0%)   0.000(  0.0%)   0.000(  0.0%)
  26  -0.0000(  0.0%)  -0.0000(  0.0%)   0.000(  0.0%)   0.000(  0.0%)
  27  -0.0000(  0.0%)  -0.0000(  0.0%)   0.000(  0.0%)   0.000(  0.0%)
  28  -0.0000(  0.0%)  -0.0000(  0.0%)   0.000(  0.0%)   0.000(  0.0%)
  29  -0.0000(  0.0%)  -0.0000(  0.0%)   0.000(  0.0%)   0.000(  0.0%)
  30  -0.0000(  0.0%)  -0.0000(  0.0%)   0.000(  0.0%)   0.000(  0.0%)
  31  -0.0000(  0.0%)  -0.0000(  0.0%)   0.000(  0.0%)   0.000(  0.0%)
  32  -0.0000(  0.0%)  -0.0000(  0.0%)   0.000(  0.0%)   0.000(  0.0%)
  33  -0.0000(  0.0%)  -0.0000(  0.0%)   0.000(  0.0%)   0.000(  0.0%)
  34  -0.0000(  0.0%)  -0.0000(  0.0%)   0.000(  0.0%)   0.000(  0.0%)
 --------------------------------------------------------------------- 
 Tot  -4.5052(100.0%)  -4.5052(100.0%)   2.418(100.0%)   2.418(100.0%)
 --------------------------------------------------------------------- 
   From fragment 2 to fragment 1
 --------------------------------------------------------------------- 
   #   Delta E(Alpha)    Delta E(Beta)  Delta Q(Alpha)   Delta Q(Beta)
 --------------------------------------------------------------------- 
   1  -2.2084( 72.4%)  -2.2084( 72.4%)   1.532( 80.7%)   1.532( 80.7%)
   2  -0.3802( 12.5%)  -0.3802( 12.5%)   0.182(  9.6%)   0.182(  9.6%)
   3  -0.2128(  7.0%)  -0.2128(  7.0%)   0.082(  4.3%)   0.082(  4.3%)
   4  -0.1511(  5.0%)  -0.1511(  5.0%)   0.070(  3.7%)   0.070(  3.7%)
   5  -0.0526(  1.7%)  -0.0526(  1.7%)   0.020(  1.1%)   0.020(  1.1%)
   6  -0.0337(  1.1%)  -0.0337(  1.1%)   0.010(  0.5%)   0.010(  0.5%)
   7  -0.0053(  0.2%)  -0.0053(  0.2%)   0.001(  0.0%)   0.001(  0.0%)
   8  -0.0027(  0.1%)  -0.0027(  0.1%)   0.000(  0.0%)   0.000(  0.0%)
   9  -0.0011(  0.0%)  -0.0011(  0.0%)   0.000(  0.0%)   0.000(  0.0%)
  10  -0.0003(  0.0%)  -0.0003(  0.0%)   0.000(  0.0%)   0.000(  0.0%)
  11  -0.0002(  0.0%)  -0.0002(  0.0%)   0.000(  0.0%)   0.000(  0.0%)
 --------------------------------------------------------------------- 
 Tot  -3.0482(100.0%)  -3.0482(100.0%)   1.899(100.0%)   1.899(100.0%)
 --------------------------------------------------------------------- 

Archival summary:
1\1\n268\SP\ProcedureUnspecified\6-31G**\1622915\erb74\WedAug1212:34:262015WedAug1212:34:262015\0\\#,ProcedureUnspecified,6-31G**,\\0,1\P\F,1,1.55311\F,1,1.57586,2,86.3146\F,1,1.58211,2,88.1341,3,-86.746,0\F,1,1.59092,2,90.1471,3,-178.208,0\F,1,1.62788,2,176.629,3,149.016,0\F,1,1.64937,2,89.2141,3,94.2866,0\O,2,2.6775,1,139.516,3,150.941,0\C,8,1.15995,2,80.581,1,-120.808,0\O,9,1.16003,8,179.997,2,142.725,0\H,10,2.54341,9,110.981,8,-66.5865,0\C,11,1.09305,10,144.091,9,53.1278,0\H,12,1.09298,11,112.419,10,-38.6671,0\H,12,1.09301,11,106.632,10,-153.759,0\N,12,1.43634,11,103.254,10,79.5455,0\C,15,1.39257,12,120.971,11,-156.84,0\H,16,1.079,15,126.61,12,-8.84047,0\N,16,1.33695,15,104.075,12,168.253,0\C,15,1.4018,12,124.253,11,12.9066,0\H,19,1.08301,15,121.413,12,7.21631,0\C,19,1.38251,15,101.541,12,-172.234,0\H,21,1.08308,19,132.112,15,-165.658,0\C,18,1.40944,16,125.846,15,170.234,0\H,23,1.09296,18,110.287,16,-35.2796,0\H,23,1.09299,18,114.033,16,-165.93,0\C,23,1.5455,18,107.844,16,70.3571,0\H,26,1.092,23,103.773,18,-54.1661,0\H,26,1.09203,23,111.841,18,62.5699,0\C,26,1.54402,23,112.769,18,-166.579,0\H,29,1.09197,26,106.808,23,56.8639,0\H,29,1.09198,26,107.737,23,-176.452,0\C,29,1.4754,26,118.148,23,-63.4473,0\H,32,1.09194,29,112.978,26,60.3211,0\H,32,1.09198,29,110.196,26,-62.9243,0\H,32,1.092,29,110.505,26,170.461,0\\\@

 Total job time:  1271.86s(wall), 801.77s(cpu) 
 Wed Aug 12 12:34:26 2015

        *************************************************************
        *                                                           *
        *  Thank you very much for using Q-Chem.  Have a nice day.  *
        *                                                           *
        *************************************************************


